                         Program Version 3.0.3 - RELEASE   -
|  1> ! PBE0 def2-TZVPD PAL8 RIJCOSX def2-TZVP/J
|  2> %output
|  3>        print[P_Hirshfeld] 1
|  4>        print[P_BondOrder_M] 1
|  5>        print[P_Mayer] 1
|  6>  end
|  7> *xyzfile -1 1 struc.xyz
|  8>
|  9>                          ****END OF INPUT****

CARTESIAN COORDINATES (ANGSTROEM)
---------------------------------
  H      3.028759   -1.807634   -4.528097
  O      2.626282   -1.775115   -3.645713
  C      1.985887   -0.495683   -3.493438
  H      1.300049   -0.303657   -4.327484
  H      2.733607    0.308513   -3.453747
  C      1.204411   -0.494052   -2.194012
  H      0.823945    0.516539   -2.015662
  O      0.046401   -1.386014   -2.290352
  C      0.166415   -2.445101   -1.339194
  H     -0.518098   -2.287018   -0.502444
  N     -0.264879   -3.695457   -1.967362
  C      0.461603   -4.221301   -3.011921
  H      1.327779   -3.632811   -3.300331
  C      0.110310   -5.362403   -3.650341
  H      0.706083   -5.753238   -4.464265
  C     -1.090321   -6.058826   -3.261955
  O     -1.531321   -7.103652   -3.755646
  N     -1.811059   -5.412968   -2.246207
  H     -2.687424   -5.843788   -1.962157
  C     -1.481927   -4.254340   -1.572937
  O     -2.209608   -3.759020   -0.715300
  C      1.995725   -0.971682   -0.976272
  H      3.070100   -0.799231   -1.068303
  C      1.627774   -2.454434   -0.852841
  H      2.249902   -3.045755   -1.527542
  O      1.786928   -2.984454    0.451897
  H      1.634414   -2.250510    1.087708
  O      1.495915   -0.315004    0.197530
  P      2.498475    0.249130    1.378096
  O      3.860970    0.494370    0.800470
  O      2.291163   -0.630167    2.577330
  O      1.734360    1.649634    1.702528
  C      1.873632    2.739337    0.765993
  H      1.899855    2.358292   -0.260407
  H      2.805805    3.276758    0.968255
  C      0.707826    3.687514    0.928853
  H      0.916796    4.588133    0.336493
  O     -0.509672    3.076166    0.419303
  C     -1.623184    3.459142    1.201227
  H     -2.406663    3.884102    0.570687
  N     -2.201808    2.237402    1.845778
  C     -1.544589    1.034663    1.859398
  H     -0.578117    1.041149    1.371878
  C     -2.069260   -0.074212    2.440471
  H     -1.527107   -1.010393    2.435686
  C     -3.360341   -0.015931    3.075459
  O     -3.951847   -0.944082    3.641446
  N     -3.960427    1.252074    3.009881
  H     -4.874620    1.350537    3.444304
  C     -3.455519    2.393977    2.427160
  O     -4.057674    3.467947    2.414965
  C      0.366001    4.097368    2.360962
  H      0.500159    3.253970    3.044163
  C     -1.123853    4.466686    2.245464
  H     -1.665914    4.382683    3.192450
  O     -1.254107    5.777611    1.695460
  H     -0.478651    6.274431    2.027727
  O      1.183763    5.202890    2.746996
  H      1.216894    5.232220    3.717913

 Total Charge           Charge          ....   -1
 Multiplicity           Mult            ....    1
 Number of Electrons    NEL             ....  286
 Basis Dimension        Dim             .... 1615

ORBITAL ENERGIES
----------------

  NO   OCC          E(Eh)            E(eV)
   0   2.0000     -77.167565     -2099.8362
   1   2.0000     -19.176241      -521.8121
   2   2.0000     -19.163850      -521.4749
   3   2.0000     -19.163244      -521.4584
   4   2.0000     -19.149393      -521.0815
   5   2.0000     -19.144904      -520.9593
   6   2.0000     -19.119309      -520.2629
   7   2.0000     -19.116640      -520.1902
   8   2.0000     -19.112413      -520.0752
   9   2.0000     -19.108938      -519.9806
  10   2.0000     -19.108733      -519.9751
  11   2.0000     -19.108465      -519.9678
  12   2.0000     -19.094740      -519.5943
  13   2.0000     -19.019201      -517.5388
  14   2.0000     -19.012553      -517.3579
  15   2.0000     -14.380379      -391.3100
  16   2.0000     -14.380070      -391.3016
  17   2.0000     -14.366811      -390.9408
  18   2.0000     -14.362494      -390.8233
  19   2.0000     -10.297072      -280.1976
  20   2.0000     -10.297016      -280.1961
  21   2.0000     -10.269227      -279.4399
  22   2.0000     -10.259824      -279.1840
  23   2.0000     -10.255570      -279.0682
  24   2.0000     -10.234134      -278.4849
  25   2.0000     -10.224536      -278.2238
  26   2.0000     -10.224264      -278.2164
  27   2.0000     -10.220367      -278.1103
  28   2.0000     -10.217215      -278.0245
  29   2.0000     -10.216458      -278.0039
  30   2.0000     -10.210249      -277.8350
  31   2.0000     -10.206785      -277.7407
  32   2.0000     -10.198493      -277.5151
  33   2.0000     -10.195981      -277.4467
  34   2.0000     -10.195136      -277.4238
  35   2.0000     -10.166741      -276.6511
  36   2.0000     -10.147735      -276.1339
  37   2.0000      -6.544949      -178.0971
  38   2.0000      -4.683856      -127.4542
  39   2.0000      -4.682154      -127.4079
  40   2.0000      -4.678811      -127.3169
  41   2.0000      -1.041130       -28.3306
  42   2.0000      -1.031302       -28.0632
  43   2.0000      -1.025386       -27.9022
  44   2.0000      -1.011420       -27.5221
  45   2.0000      -1.010861       -27.5069
  46   2.0000      -0.996600       -27.1189
  47   2.0000      -0.991291       -26.9744
  48   2.0000      -0.985405       -26.8142
  49   2.0000      -0.982609       -26.7381
  50   2.0000      -0.980382       -26.6775
  51   2.0000      -0.956704       -26.0332
  52   2.0000      -0.937905       -25.5217
  53   2.0000      -0.926001       -25.1978
  54   2.0000      -0.924418       -25.1547
  55   2.0000      -0.881120       -23.9765
  56   2.0000      -0.877027       -23.8651
  57   2.0000      -0.855173       -23.2705
  58   2.0000      -0.815306       -22.1856
  59   2.0000      -0.753799       -20.5119
  60   2.0000      -0.746021       -20.3003
  61   2.0000      -0.741517       -20.1777
  62   2.0000      -0.730220       -19.8703
  63   2.0000      -0.711326       -19.3562
  64   2.0000      -0.702444       -19.1145
  65   2.0000      -0.643313       -17.5054
  66   2.0000      -0.638205       -17.3664
  67   2.0000      -0.637291       -17.3416
  68   2.0000      -0.630037       -17.1442
  69   2.0000      -0.593871       -16.1601
  70   2.0000      -0.592034       -16.1101
  71   2.0000      -0.566689       -15.4204
  72   2.0000      -0.557933       -15.1821
  73   2.0000      -0.546144       -14.8613
  74   2.0000      -0.537055       -14.6140
  75   2.0000      -0.516983       -14.0678
  76   2.0000      -0.507818       -13.8184
  77   2.0000      -0.502429       -13.6718
  78   2.0000      -0.500771       -13.6267
  79   2.0000      -0.492793       -13.4096
  80   2.0000      -0.486676       -13.2431
  81   2.0000      -0.475087       -12.9278
  82   2.0000      -0.469447       -12.7743
  83   2.0000      -0.463432       -12.6106
  84   2.0000      -0.455112       -12.3842
  85   2.0000      -0.446537       -12.1509
  86   2.0000      -0.444774       -12.1029
  87   2.0000      -0.431862       -11.7516
  88   2.0000      -0.427319       -11.6280
  89   2.0000      -0.424425       -11.5492
  90   2.0000      -0.421205       -11.4616
  91   2.0000      -0.418970       -11.4007
  92   2.0000      -0.404128       -10.9969
  93   2.0000      -0.401291       -10.9197
  94   2.0000      -0.392955       -10.6929
  95   2.0000      -0.390775       -10.6335
  96   2.0000      -0.388907       -10.5827
  97   2.0000      -0.387855       -10.5541
  98   2.0000      -0.381159       -10.3719
  99   2.0000      -0.375035       -10.2052
 100   2.0000      -0.368321       -10.0225
 101   2.0000      -0.363618        -9.8945
 102   2.0000      -0.362419        -9.8619
 103   2.0000      -0.359018        -9.7694
 104   2.0000      -0.356580        -9.7030
 105   2.0000      -0.354353        -9.6424
 106   2.0000      -0.346569        -9.4306
 107   2.0000      -0.341664        -9.2971
 108   2.0000      -0.338513        -9.2114
 109   2.0000      -0.335469        -9.1286
 110   2.0000      -0.331331        -9.0160
 111   2.0000      -0.329512        -8.9665
 112   2.0000      -0.318734        -8.6732
 113   2.0000      -0.311067        -8.4646
 114   2.0000      -0.306871        -8.3504
 115   2.0000      -0.305056        -8.3010
 116   2.0000      -0.299325        -8.1451
 117   2.0000      -0.294801        -8.0219
 118   2.0000      -0.292467        -7.9584
 119   2.0000      -0.278333        -7.5738
 120   2.0000      -0.261988        -7.1291
 121   2.0000      -0.255776        -6.9600
 122   2.0000      -0.250874        -6.8266
 123   2.0000      -0.248580        -6.7642
 124   2.0000      -0.242756        -6.6057
 125   2.0000      -0.240115        -6.5339
 126   2.0000      -0.236540        -6.4366
 127   2.0000      -0.233783        -6.3616
 128   2.0000      -0.231136        -6.2895
 129   2.0000      -0.227917        -6.2019
 130   2.0000      -0.227282        -6.1847
 131   2.0000      -0.221690        -6.0325
 132   2.0000      -0.220798        -6.0082
 133   2.0000      -0.215719        -5.8700
 134   2.0000      -0.205386        -5.5888
 135   2.0000      -0.200776        -5.4634
 136   2.0000      -0.196457        -5.3459
 137   2.0000      -0.191885        -5.2214
 138   2.0000      -0.180635        -4.9153
 139   2.0000      -0.174212        -4.7406
 140   2.0000      -0.171410        -4.6643
 141   2.0000      -0.156453        -4.2573
 142   2.0000      -0.142549        -3.8790
 143   0.0000       0.028057         0.7635
 144   0.0000       0.043999         1.1973
 145   0.0000       0.052723         1.4347
 146   0.0000       0.053408         1.4533
 147   0.0000       0.077689         2.1140

MULLIKEN ATOMIC CHARGES
-----------------------
   0 H :    0.261601
   1 O :   -0.504625
   2 C :   -0.640209
   3 H :    0.206927
   4 H :    0.277775
   5 C :    0.734541
   6 H :   -0.170640
   7 O :   -0.436375
   8 C :   -0.849998
   9 H :    0.338832
  10 N :    0.313460
  11 C :    0.555076
  12 H :    0.440966
  13 C :   -0.971446
  14 H :    0.317222
  15 C :    0.150409
  16 O :   -0.598576
  17 N :    0.252529
  18 H :    0.207436
  19 C :    0.111870
  20 O :   -0.561867
  21 C :    0.312304
  22 H :    0.281926
  23 C :    0.514150
  24 H :    0.054221
  25 O :   -0.621145
  26 H :    0.344661
  27 O :   -0.105337
  28 P :    0.369272
  29 O :   -0.793325
  30 O :   -0.835358
  31 O :   -0.181100
  32 C :   -0.585307
  33 H :    0.056985
  34 H :    0.252937
  35 C :    0.589101
  36 H :    0.025010
  37 O :   -0.382779
  38 C :   -0.397656
  39 H :    0.034238
  40 N :    0.354847
  41 C :   -0.704590
  42 H :    1.448878
  43 C :   -0.239777
  44 H :    0.570466
  45 C :   -0.638774
  46 O :   -0.584904
  47 N :    0.270863
  48 H :    0.150247
  49 C :    0.144170
  50 O :   -0.615905
  51 C :    0.011769
  52 H :    0.406188
  53 C :    0.475149
  54 H :    0.016627
  55 O :   -0.554437
  56 H :    0.389715
  57 O :   -0.596916
  58 H :    0.328675
Sum of atomic charges:   -1.0000000

LOEWDIN ATOMIC CHARGES
----------------------
   0 H :    0.100995
   1 O :   -0.068813
   2 C :   -0.172533
   3 H :    0.125354
   4 H :    0.129304
   5 C :   -0.209581
   6 H :    0.157356
   7 O :   -0.008100
   8 C :   -0.202803
   9 H :    0.163685
  10 N :    0.082636
  11 C :   -0.013784
  12 H :    0.118212
  13 C :    0.012209
  14 H :    0.112065
  15 C :   -0.459966
  16 O :    0.025594
  17 N :    0.203107
  18 H :    0.168413
  19 C :   -0.435260
  20 O :    0.074359
  21 C :   -0.226400
  22 H :    0.153799
  23 C :   -0.237738
  24 H :    0.145031
  25 O :    0.007910
  26 H :    0.078767
  27 O :   -0.178327
  28 P :    0.236190
  29 O :   -0.313143
  30 O :   -0.316668
  31 O :   -0.213576
  32 C :   -0.152903
  33 H :    0.123875
  34 H :    0.135848
  35 C :   -0.214674
  36 H :    0.164183
  37 O :   -0.019080
  38 C :   -0.194468
  39 H :    0.168876
  40 N :    0.079922
  41 C :    0.002438
  42 H :    0.121523
  43 C :    0.035026
  44 H :    0.123960
  45 C :   -0.455507
  46 O :    0.029982
  47 N :    0.202270
  48 H :    0.166053
  49 C :   -0.459853
  50 O :    0.059311
  51 C :   -0.248498
  52 H :    0.168019
  53 C :   -0.235316
  54 H :    0.154096
  55 O :   -0.002459
  56 H :    0.097951
  57 O :   -0.005869
  58 H :    0.116998

  Mayer bond orders larger than 0.1
B(  0-H ,  1-O ) :   0.8993 B(  1-O ,  2-C ) :   0.9277 B(  1-O ,  5-C ) :  -0.1324
B(  1-O , 21-C ) :   0.1695 B(  1-O , 27-O ) :  -0.1036 B(  2-C ,  3-H ) :   0.9093
B(  2-C ,  4-H ) :   0.9070 B(  2-C ,  5-C ) :   0.6724 B(  2-C , 21-C ) :   0.3942
B(  2-C , 22-H ) :  -0.1038 B(  2-C , 38-C ) :   0.1133 B(  2-C , 41-C ) :  -0.2191
B(  2-C , 45-C ) :   0.2902 B(  2-C , 54-H ) :  -0.1919 B(  3-H , 41-C ) :   0.2513
B(  3-H , 43-C ) :  -0.1356 B(  3-H , 45-C ) :  -0.1026 B(  4-H , 41-C ) :  -0.1178
B(  4-H , 45-C ) :   0.1481 B(  5-C ,  6-H ) :   0.9342 B(  5-C ,  7-O ) :   0.7000
B(  5-C ,  8-C ) :   0.3095 B(  5-C , 21-C ) :   0.5818 B(  5-C , 23-C ) :   0.1825
B(  5-C , 27-O ) :   0.5390 B(  5-C , 43-C ) :  -0.2767 B(  5-C , 45-C ) :   0.2203
B(  7-O ,  8-C ) :   0.8042 B(  7-O , 10-N ) :   0.1072 B(  8-C ,  9-H ) :   0.3754
B(  8-C , 10-N ) :   1.0687 B(  8-C , 11-C ) :  -0.5138 B(  8-C , 15-C ) :   0.1060
B(  8-C , 19-C ) :  -0.2533 B(  8-C , 23-C ) :   1.1685 B(  8-C , 24-H ) :   0.1015
B(  8-C , 27-O ) :   0.1678 B(  8-C , 41-C ) :  -0.2520 B(  8-C , 43-C ) :   0.8014
B(  8-C , 45-C ) :  -0.3403 B(  8-C , 53-C ) :   0.1249 B(  9-H , 10-N ) :  -0.1210
B(  9-H , 11-C ) :   0.1556 B(  9-H , 20-O ) :   0.1788 B( 10-N , 11-C ) :   0.9687
B( 10-N , 19-C ) :   0.8993 B( 10-N , 23-C ) :   0.1314 B( 10-N , 41-C ) :  -0.2552
B( 10-N , 42-H ) :   0.2491 B( 10-N , 43-C ) :   0.2443 B( 10-N , 45-C ) :  -0.2222
B( 11-C , 12-H ) :   0.7458 B( 11-C , 13-C ) :   0.9013 B( 11-C , 21-C ) :   0.1159
B( 11-C , 24-H ) :   0.1488 B( 11-C , 32-C ) :  -0.2183 B( 11-C , 35-C ) :   0.2127
B( 11-C , 38-C ) :  -0.2476 B( 11-C , 40-N ) :  -0.3402 B( 11-C , 41-C ) :   3.0549
B( 11-C , 43-C ) :  -4.1211 B( 11-C , 45-C ) :   1.4046 B( 11-C , 47-N ) :  -0.1446
B( 11-C , 49-C ) :   0.1428 B( 11-C , 51-C ) :   0.1362 B( 11-C , 52-H ) :  -0.1612
B( 11-C , 53-C ) :   0.1686 B( 12-H , 32-C ) :  -0.1765 B( 12-H , 35-C ) :   0.1757
B( 12-H , 38-C ) :   0.1989 B( 12-H , 40-N ) :   0.4857 B( 12-H , 41-C ) :  -3.3295
B( 12-H , 42-H ) :   0.2247 B( 12-H , 43-C ) :   4.9213 B( 12-H , 45-C ) :  -2.4246
B( 12-H , 47-N ) :   0.1658 B( 12-H , 49-C ) :  -0.1122 B( 13-C , 14-H ) :   0.9351
B( 13-C , 15-C ) :   1.0624 B( 13-C , 27-O ) :  -0.1725 B( 13-C , 32-C ) :   0.5224
B( 13-C , 35-C ) :  -0.4940 B( 13-C , 41-C ) :   0.4504 B( 13-C , 42-H ) :  -0.3148
B( 13-C , 43-C ) :  -1.4910 B( 13-C , 45-C ) :   1.4432 B( 14-H , 43-C ) :  -0.1410
B( 14-H , 45-C ) :   0.1359 B( 15-C , 16-O ) :   1.5259 B( 15-C , 17-N ) :   1.2059
B( 15-C , 19-C ) :  -0.1486 B( 15-C , 41-C ) :   0.1920 B( 15-C , 43-C ) :  -0.2046
B( 16-O , 41-C ) :   0.1124 B( 17-N , 18-H ) :   0.9128 B( 17-N , 19-C ) :   1.1192
B( 19-C , 20-O ) :   1.7727 B( 19-C , 43-C ) :   0.1270 B( 19-C , 45-C ) :  -0.1009
B( 19-C , 52-H ) :   0.1673 B( 19-C , 53-C ) :  -0.1105 B( 21-C , 22-H ) :   0.9798
B( 21-C , 23-C ) :   1.0076 B( 21-C , 27-O ) :   0.4062 B( 21-C , 28-P ) :  -0.1031
B( 21-C , 29-O ) :   0.1441 B( 21-C , 40-N ) :   0.1068 B( 21-C , 52-H ) :   0.1288
B( 21-C , 53-C ) :   0.3333 B( 21-C , 54-H ) :  -0.4370 B( 22-H , 29-O ) :  -0.1798
B( 22-H , 41-C ) :  -0.1167 B( 22-H , 43-C ) :   0.3267 B( 22-H , 45-C ) :  -0.3209
B( 22-H , 49-C ) :   0.1069 B( 22-H , 51-C ) :  -0.2420 B( 22-H , 53-C ) :  -0.1535
B( 22-H , 54-H ) :   0.5863 B( 22-H , 55-O ) :  -0.1789 B( 23-C , 24-H ) :   0.6372
B( 23-C , 25-O ) :   0.5929 B( 23-C , 27-O ) :   0.1964 B( 23-C , 35-C ) :  -0.1448
B( 23-C , 38-C ) :  -0.1133 B( 23-C , 40-N ) :   0.2042 B( 23-C , 41-C ) :  -0.4563
B( 23-C , 43-C ) :   0.3908 B( 23-C , 49-C ) :   0.1711 B( 23-C , 51-C ) :   0.1752
B( 23-C , 53-C ) :  -0.2056 B( 23-C , 54-H ) :   0.2163 B( 24-H , 35-C ) :   0.1278
B( 24-H , 38-C ) :   0.2022 B( 24-H , 39-H ) :   0.1664 B( 24-H , 40-N ) :  -0.3771
B( 24-H , 41-C ) :   0.6282 B( 24-H , 43-C ) :  -0.5332 B( 24-H , 45-C ) :   0.1622
B( 24-H , 49-C ) :  -0.1705 B( 24-H , 54-H ) :  -0.1017 B( 25-O , 26-H ) :   0.7302
B( 27-O , 28-P ) :   0.8856 B( 27-O , 30-O ) :  -0.1140 B( 27-O , 43-C ) :   0.5629
B( 27-O , 45-C ) :  -0.4320 B( 28-P , 29-O ) :   1.5375 B( 28-P , 30-O ) :   1.5005
B( 28-P , 31-O ) :   0.9003 B( 31-O , 32-C ) :   0.6319 B( 31-O , 35-C ) :   0.2143
B( 31-O , 42-H ) :   0.1318 B( 31-O , 51-C ) :   0.1641 B( 32-C , 33-H ) :   1.0880
B( 32-C , 34-H ) :   0.8003 B( 32-C , 35-C ) :   1.2057 B( 32-C , 37-O ) :   0.1589
B( 32-C , 51-C ) :   0.2901 B( 34-H , 41-C ) :   0.1425 B( 34-H , 42-H ) :  -0.1313
B( 35-C , 36-H ) :   0.6494 B( 35-C , 37-O ) :   0.6977 B( 35-C , 38-C ) :   0.1204
B( 35-C , 51-C ) :   1.0635 B( 35-C , 53-C ) :   0.1815 B( 35-C , 55-O ) :  -0.1349
B( 35-C , 57-O ) :   0.2238 B( 37-O , 38-C ) :   0.5783 B( 37-O , 39-H ) :  -0.1155
B( 37-O , 51-C ) :   0.1248 B( 37-O , 53-C ) :   0.2004 B( 38-C , 39-H ) :   1.0350
B( 38-C , 40-N ) :   1.4728 B( 38-C , 41-C ) :  -0.4438 B( 38-C , 49-C ) :  -0.1687
B( 38-C , 51-C ) :   0.1608 B( 38-C , 53-C ) :   0.8260 B( 38-C , 55-O ) :   0.3946
B( 40-N , 41-C ) :   0.6152 B( 40-N , 43-C ) :  -0.1101 B( 40-N , 49-C ) :   0.9094
B( 41-C , 42-H ) :  -1.5053 B( 41-C , 43-C ) :   2.1929 B( 41-C , 44-H ) :   0.1045
B( 41-C , 45-C ) :  -0.1714 B( 42-H , 43-C ) :  -0.6452 B( 43-C , 44-H ) :   0.5663
B( 43-C , 45-C ) :   0.3860 B( 44-H , 45-C ) :  -0.1105 B( 45-C , 46-O ) :   1.5804
B( 45-C , 47-N ) :   1.1589 B( 45-C , 49-C ) :  -0.1807 B( 47-N , 48-H ) :   0.9257
B( 47-N , 49-C ) :   1.1419 B( 49-C , 50-O ) :   1.6787 B( 51-C , 52-H ) :   0.7432
B( 51-C , 53-C ) :   1.0055 B( 51-C , 55-O ) :   0.2978 B( 51-C , 57-O ) :   0.4774
B( 53-C , 54-H ) :   0.8769 B( 53-C , 55-O ) :   0.3602 B( 53-C , 57-O ) :   0.1795
B( 55-O , 56-H ) :   0.7346 B( 57-O , 58-H ) :   0.8436

FINAL SINGLE POINT ENERGY     -2311.464674631077

DIPOLE MOMENT
-------------
                                X             Y             Z
Electronic contribution:     -9.00664      -9.72052       7.35188
Nuclear contribution   :      9.08401      12.83554     -10.01387
                        -----------------------------------------
Total Dipole Moment    :      0.07737       3.11502      -2.66199
                        -----------------------------------------
Magnitude (a.u.)       :      4.09824
Magnitude (Debye)      :     10.41689

                             ****ORCA TERMINATED NORMALLY****
TOTAL RUN TIME: 0 days 0 hours 25 minutes 30 seconds 758 msec
